# Region type : patch outlet
# Faces       : 2100
# Area        : 8.495747e+01
# Scale factor: 1.000000e+00
# Time        	sum(rhoPhi)
0.0833333     	8.495747e+01
0.138889      	8.492359e+01
0.194444      	8.488840e+01
0.25          	8.486098e+01
0.291667      	8.483408e+01
0.34375       	8.480589e+01
0.375         	8.477640e+01
0.40625       	8.474635e+01
0.416667      	8.471713e+01
0.428571      	8.469251e+01
0.442857      	8.467302e+01
0.461905      	8.465308e+01
0.480952      	8.463066e+01
0.5           	8.460622e+01
0.517857      	8.458128e+01
0.533333      	8.455655e+01
0.551389      	8.453290e+01
0.57125       	8.450946e+01
0.593594      	8.448496e+01
0.619661      	8.445924e+01
0.634144      	8.443197e+01
0.650694      	8.440655e+01
0.670556      	8.438399e+01
0.697037      	8.436101e+01
0.723519      	8.433587e+01
0.75          	8.430904e+01
0.761364      	8.428202e+01
0.774621      	8.425875e+01
0.789646      	8.423961e+01
0.807176      	8.422095e+01
0.811111      	8.420147e+01
0.815833      	8.418559e+01
0.821414      	8.417482e+01
0.828028      	8.416523e+01
0.835845      	8.415537e+01
0.844965      	8.414467e+01
0.856039      	8.413289e+01
0.869126      	8.411983e+01
0.885486      	8.410534e+01
0.904571      	8.408922e+01
0.928428      	8.407144e+01
0.952286      	8.405195e+01
0.976143      	8.403135e+01
1             	8.401058e+01
1.02273       	8.398989e+01
1.05114       	8.396954e+01
1.05546       	8.394871e+01
1.06058       	8.393180e+01
1.06669       	8.392086e+01
1.07402       	8.391169e+01
1.08282       	8.390247e+01
1.09327       	8.389247e+01
1.10533       	8.388137e+01
1.11979       	8.386911e+01
1.13839       	8.385560e+01
1.16072       	8.384044e+01
1.19048       	8.382343e+01
1.19589       	8.380432e+01
1.20265       	8.378797e+01
1.21054       	8.377660e+01
1.22041       	8.376650e+01
1.23027       	8.375604e+01
1.24014       	8.374497e+01
1.25          	8.373369e+01
1.2619        	8.372238e+01
1.27591       	8.371060e+01
1.29315       	8.369778e+01
1.31383       	8.368360e+01
1.3371        	8.366781e+01
1.36425       	8.365059e+01
1.38122       	8.363203e+01
1.38292       	8.361397e+01
1.38494       	8.360114e+01
1.38739       	8.359381e+01
1.39035       	8.358854e+01
1.39389       	8.358378e+01
1.39813       	8.357884e+01
1.40322       	8.357338e+01
1.40927       	8.356720e+01
1.41683       	8.356018e+01
1.42607       	8.355209e+01
1.43663       	8.354275e+01
1.44931       	8.353221e+01
1.46621       	8.352046e+01
1.4831        	8.350705e+01
1.48733       	8.349230e+01
1.49155       	8.347997e+01
1.49578       	8.347129e+01
1.5           	8.346416e+01
1.5051        	8.345765e+01
1.51122       	8.345109e+01
1.51869       	8.344395e+01
1.52758       	8.343589e+01
1.53817       	8.342674e+01
1.55063       	8.341642e+01
1.56597       	8.340486e+01
1.58437       	8.339191e+01
1.60803       	8.337739e+01
1.63643       	8.336104e+01
1.67428       	8.334271e+01
1.68943       	8.332220e+01
1.70962       	8.330261e+01
1.72981       	8.328507e+01
1.75          	8.326745e+01
1.775         	8.324966e+01
1.80312       	8.323101e+01
1.83594       	8.321097e+01
1.85234       	8.318953e+01
1.86219       	8.316914e+01
1.87367       	8.315245e+01
1.88771       	8.313792e+01
1.90375       	8.312327e+01
1.923         	8.310759e+01
1.94867       	8.309055e+01
1.97433       	8.307152e+01
1.97667       	8.305094e+01
1.97958       	8.303476e+01
1.98299       	8.302495e+01
1.98724       	8.301758e+01
1.99149       	8.301071e+01
1.99575       	8.300375e+01
2             	8.299675e+01
2.0051        	8.298973e+01
2.01122       	8.298238e+01
2.01846       	8.297426e+01
2.02704       	8.296512e+01
2.03717       	8.295483e+01
2.04899       	8.294329e+01
2.06335       	8.293047e+01
2.08032       	8.291624e+01
2.08436       	8.290048e+01
2.08909       	8.288696e+01
2.09484       	8.287713e+01
2.10189       	8.286837e+01
2.11012       	8.285929e+01
2.12011       	8.284934e+01
2.13192       	8.283823e+01
2.14668       	8.282579e+01
2.1639        	8.281179e+01
2.18542       	8.279618e+01
2.20695       	8.277889e+01
2.21771       	8.276040e+01
2.22847       	8.274352e+01
2.23924       	8.272908e+01
2.25          	8.271560e+01
2.26316       	8.270247e+01
2.27895       	8.268892e+01
2.29737       	8.267420e+01
2.31988       	8.265811e+01
2.34561       	8.264048e+01
2.37135       	8.262133e+01
2.40351       	8.260132e+01
2.40918       	8.258034e+01
2.41617       	8.256264e+01
2.42455       	8.255010e+01
2.43533       	8.253902e+01
2.44827       	8.252751e+01
2.46551       	8.251477e+01
2.48276       	8.250025e+01
2.5           	8.248431e+01
2.52083       	8.246789e+01
2.5463        	8.245077e+01
2.5754        	8.243224e+01
2.58883       	8.241221e+01
2.60495       	8.239358e+01
2.62308       	8.237709e+01
2.64423       	8.236064e+01
2.67067       	8.234336e+01
2.69712       	8.232465e+01
2.72356       	8.230484e+01
2.75          	8.228466e+01
2.77083       	8.226437e+01
2.7963        	8.224479e+01
2.8254        	8.222545e+01
2.83883       	8.220523e+01
2.85495       	8.218657e+01
2.87308       	8.217005e+01
2.89423       	8.215357e+01
2.92067       	8.213626e+01
2.94712       	8.211747e+01
2.97356       	8.209752e+01
3             	8.207717e+01
3.03125       	8.205667e+01
3.06771       	8.203554e+01
3.11328       	8.201319e+01
3.13607       	8.198925e+01
3.16455       	8.196635e+01
3.19303       	8.194501e+01
3.22152       	8.192367e+01
3.25          	8.190228e+01
3.27273       	8.188085e+01
3.29798       	8.186019e+01
3.32684       	8.184007e+01
3.35158       	8.181943e+01
3.38126       	8.179877e+01
3.42084       	8.177788e+01
3.46042       	8.175558e+01
3.5           	8.173202e+01
3.53125       	8.170814e+01
3.55859       	8.168494e+01
3.58594       	8.166312e+01
3.60938       	8.164213e+01
3.63281       	8.162198e+01
3.65234       	8.160242e+01
3.67188       	8.158369e+01
3.69141       	8.156571e+01
3.71094       	8.154803e+01
3.73047       	8.153040e+01
3.75          	8.151282e+01
3.76667       	8.149526e+01
3.78333       	8.147824e+01
3.79881       	8.146179e+01
3.81429       	8.144589e+01
3.82976       	8.143034e+01
3.84395       	8.141501e+01
3.85813       	8.140001e+01
3.87232       	8.138537e+01
3.88651       	8.137094e+01
3.90069       	8.135661e+01
3.91488       	8.134240e+01
3.92907       	8.132828e+01
3.94325       	8.131421e+01
3.95744       	8.130026e+01
3.97163       	8.128639e+01
3.98581       	8.127250e+01
4             	8.125883e+01
4.01562       	8.124557e+01
4.03365       	8.123164e+01
4.05168       	8.121705e+01
4.07151       	8.120204e+01
4.08774       	8.118746e+01
4.10577       	8.117240e+01
4.1238        	8.115760e+01
4.14183       	8.114331e+01
4.15986       	8.112870e+01
4.17788       	8.111417e+01
4.19591       	8.109956e+01
4.21394       	8.108582e+01
4.23197       	8.107154e+01
4.25          	8.105780e+01
4.26923       	8.104369e+01
4.28846       	8.102984e+01
4.30962       	8.101582e+01
4.33077       	8.100167e+01
4.35192       	8.098734e+01
4.37308       	8.097318e+01
4.39423       	8.095912e+01
4.41538       	8.094498e+01
4.43654       	8.093145e+01
4.45769       	8.091786e+01
4.47885       	8.090448e+01
4.5           	8.089121e+01
4.52083       	8.087823e+01
4.54167       	8.086529e+01
4.5625        	8.085269e+01
4.58333       	8.084025e+01
4.60417       	8.082797e+01
4.625         	8.081589e+01
4.64583       	8.080402e+01
4.66319       	8.079234e+01
4.6849        	8.078124e+01
4.7066        	8.077035e+01
4.7283        	8.075936e+01
4.75          	8.074845e+01
4.76786       	8.073771e+01
4.78571       	8.072757e+01
4.80357       	8.071808e+01
4.82143       	8.070899e+01
4.84127       	8.070019e+01
4.86111       	8.069146e+01
4.87847       	8.068276e+01
4.89583       	8.067444e+01
4.91319       	8.066659e+01
4.93056       	8.065907e+01
4.94792       	8.065180e+01
4.96528       	8.064475e+01
4.98264       	8.063794e+01
5             	8.063134e+01
5.01923       	8.062496e+01
5.03846       	8.061869e+01
5.05769       	8.061250e+01
5.07692       	8.060651e+01
5.09615       	8.060073e+01
5.11538       	8.059521e+01
5.13462       	8.058995e+01
5.15385       	8.058500e+01
5.17308       	8.058033e+01
5.19231       	8.057598e+01
5.21154       	8.057189e+01
5.23077       	8.056812e+01
5.25          	8.056463e+01
5.26786       	8.056145e+01
5.28571       	8.055859e+01
5.30519       	8.055609e+01
5.32684       	8.055383e+01
5.35158       	8.055174e+01
5.37278       	8.054986e+01
5.39822       	8.054831e+01
5.41858       	8.054713e+01
5.43893       	8.054647e+01
5.45929       	8.054628e+01
5.47964       	8.054659e+01
5.5           	8.054732e+01
5.52273       	8.054857e+01
5.54798       	8.055036e+01
5.57043       	8.055275e+01
5.59608       	8.055564e+01
5.62173       	8.055905e+01
5.64739       	8.056317e+01
5.67304       	8.056788e+01
5.69869       	8.057322e+01
5.72435       	8.057918e+01
5.73717       	8.058579e+01
5.75          	8.059230e+01
5.76562       	8.059819e+01
5.78365       	8.060426e+01
5.80529       	8.061103e+01
5.82963       	8.061869e+01
5.85397       	8.062755e+01
5.88317       	8.063727e+01
5.91238       	8.064803e+01
5.94159       	8.065998e+01
5.97079       	8.067290e+01
6             	8.068654e+01
6.03125       	8.070096e+01
6.05859       	8.071630e+01
6.08594       	8.073236e+01
6.11328       	8.074861e+01
6.14062       	8.076542e+01
6.16797       	8.078283e+01
6.19531       	8.080092e+01
6.22266       	8.081973e+01
6.25          	8.083930e+01
6.28125       	8.085980e+01
6.3125        	8.088147e+01
6.34375       	8.090490e+01
6.375         	8.092939e+01
6.40625       	8.095493e+01
6.4375        	8.098134e+01
6.46875       	8.100857e+01
6.5           	8.103671e+01
6.53125       	8.106572e+01
6.5625        	8.109550e+01
6.59375       	8.112613e+01
6.625         	8.115760e+01
6.65          	8.118976e+01
6.675         	8.122194e+01
6.7           	8.125295e+01
6.725         	8.128448e+01
6.75          	8.131700e+01
6.775         	8.135135e+01
6.8           	8.138903e+01
6.82857       	8.144019e+01
6.85306       	8.149360e+01
6.88245       	8.160926e+01
6.91184       	8.180160e+01
6.94122       	8.214523e+01
6.96082       	8.228152e+01
6.98041       	8.265148e+01
7             	8.333071e+01
7.02273       	8.488172e+01
7.04167       	8.640847e+01
7.0625        	8.932225e+01
7.08125       	9.257022e+01
7.1           	9.673248e+01
7.12143       	1.025761e+02
7.14714       	1.094812e+02
7.16771       	1.154131e+02
7.18829       	1.212119e+02
7.20886       	1.272459e+02
7.22943       	1.323619e+02
7.25          	1.371884e+02
7.26786       	1.412717e+02
7.28896       	1.445455e+02
7.31241       	1.476591e+02
7.33117       	1.518359e+02
7.35227       	1.553976e+02
7.37689       	1.602025e+02
7.39057       	1.660552e+02
7.4062        	1.690849e+02
7.42496       	1.728200e+02
7.44998       	1.807198e+02
7.46248       	1.876727e+02
7.47499       	1.927790e+02
7.48749       	1.998512e+02
7.5           	2.083634e+02
7.51471       	2.190150e+02
7.53151       	2.310735e+02
7.54517       	2.416518e+02
7.55797       	2.512512e+02
7.57274       	2.605777e+02
7.59047       	2.699748e+02
7.61041       	2.797313e+02
7.63367       	2.878297e+02
7.65694       	2.970898e+02
7.68796       	2.987615e+02
7.71898       	3.071750e+02
7.75          	3.094309e+02
7.78571       	3.096821e+02
7.81633       	3.097209e+02
7.84694       	3.020367e+02
7.8852        	2.888630e+02
7.92347       	2.827273e+02
7.96173       	2.772001e+02
8             	2.759369e+02
8.03571       	2.783984e+02
8.07857       	2.796352e+02
8.12143       	2.834060e+02
8.16429       	2.837868e+02
8.20714       	2.813848e+02
8.25          	2.766557e+02
8.29167       	2.731542e+02
8.33333       	2.722736e+02
8.375         	2.726420e+02
8.41667       	2.768588e+02
8.45833       	2.828676e+02
8.5           	2.906438e+02
8.55          	2.990121e+02
8.6           	3.106883e+02
8.65          	3.211013e+02
8.7           	3.323257e+02
8.75          	3.459049e+02
8.8           	3.595862e+02
8.85          	3.728817e+02
8.9           	3.824532e+02
8.95          	3.857727e+02
9             	3.823040e+02
9.05          	3.732613e+02
9.1           	3.618657e+02
9.15          	3.465572e+02
9.2           	3.290489e+02
9.25          	3.182875e+02
9.3125        	3.134385e+02
9.375         	3.203951e+02
9.4375        	3.251014e+02
9.5           	3.348855e+02
9.5625        	3.459438e+02
9.625         	3.627063e+02
9.6875        	3.826973e+02
9.75          	4.079486e+02
9.8125        	4.407822e+02
9.85938       	4.689752e+02
9.90625       	5.050671e+02
9.95312       	5.449905e+02
10            	5.963925e+02
10.0417       	6.514773e+02
10.0833       	7.209671e+02
10.1389       	8.233037e+02
10.1944       	9.145441e+02
10.25         	1.004501e+03
10.2917       	1.078592e+03
10.3438       	1.157018e+03
10.375        	1.208936e+03
10.4062       	1.267277e+03
10.4375       	1.323877e+03
10.4688       	1.389147e+03
10.5          	1.460795e+03
10.5357       	1.568200e+03
10.5786       	1.746224e+03
10.6214       	1.963826e+03
10.6643       	2.245015e+03
10.7071       	2.597721e+03
10.75         	3.017935e+03
10.8          	3.570872e+03
10.85         	4.207570e+03
10.8875       	4.761749e+03
10.925        	5.402532e+03
10.9625       	6.151410e+03
11            	6.953647e+03
11.0417       	7.874927e+03
11.0938       	8.979159e+03
11.125        	9.893989e+03
11.1667       	1.088747e+04
11.2083       	1.202736e+04
11.25         	1.328495e+04
11.3          	1.474340e+04
11.35         	1.633974e+04
11.3875       	1.774179e+04
11.425        	1.894262e+04
11.4625       	2.002478e+04
11.5          	2.098909e+04
11.5417       	2.181857e+04
11.5938       	2.262225e+04
11.6458       	2.378034e+04
11.6979       	2.507332e+04
11.75         	2.638398e+04
11.8125       	2.745602e+04
11.875        	2.882273e+04
11.9375       	2.992596e+04
12            	3.104315e+04
12.0625       	3.220924e+04
12.125        	3.329456e+04
12.1875       	3.428691e+04
12.25         	3.520806e+04
12.3125       	3.601931e+04
12.375        	3.676892e+04
12.4375       	3.733796e+04
12.5          	3.774306e+04
12.5625       	3.807843e+04
12.625        	3.837287e+04
12.6875       	3.866473e+04
12.75         	3.904266e+04
12.8125       	3.948022e+04
12.875        	3.993962e+04
12.9375       	4.030043e+04
13            	4.064934e+04
13.0625       	4.103288e+04
13.125        	4.133810e+04
13.1875       	4.165404e+04
13.25         	4.183136e+04
13.3125       	4.198018e+04
13.375        	4.206548e+04
13.4375       	4.211839e+04
13.5          	4.217720e+04
13.55         	4.311628e+04
13.6          	4.276436e+04
13.65         	4.308320e+04
13.7          	4.324055e+04
13.75         	4.361864e+04
13.8          	4.384679e+04
13.85         	4.420742e+04
13.9          	4.447743e+04
13.95         	4.487333e+04
14            	4.519692e+04
14.05         	4.564310e+04
14.1          	4.590485e+04
14.15         	4.627012e+04
14.2          	4.641280e+04
14.25         	4.667292e+04
14.3          	4.688561e+04
14.35         	4.715738e+04
14.4          	4.739336e+04
14.45         	4.756599e+04
14.5          	4.775048e+04
14.55         	4.786724e+04
14.6          	4.805547e+04
14.65         	4.816126e+04
14.7          	4.833064e+04
14.75         	4.837905e+04
14.8          	4.861442e+04
14.85         	4.870053e+04
14.9          	4.893382e+04
14.95         	4.901964e+04
15            	4.919989e+04
15.05         	4.926888e+04
15.1          	4.937689e+04
15.15         	4.940604e+04
15.2          	4.950113e+04
15.25         	4.953107e+04
15.3          	4.950400e+04
15.35         	4.940540e+04
15.4          	4.925655e+04
15.45         	4.913477e+04
15.5          	4.909982e+04
15.55         	4.910699e+04
15.6          	4.917896e+04
15.65         	4.923548e+04
15.7          	4.938141e+04
15.75         	4.946311e+04
15.8          	4.961213e+04
15.85         	4.965367e+04
15.9          	4.972574e+04
15.95         	4.963008e+04
16            	4.961648e+04
16.05         	4.950783e+04
16.1          	4.954814e+04
16.15         	4.949946e+04
16.2          	4.960334e+04
16.25         	4.962670e+04
16.3          	4.967150e+04
16.35         	4.968530e+04
16.4          	4.969516e+04
16.45         	4.970526e+04
16.5          	4.978811e+04
16.55         	4.986670e+04
16.6          	4.998824e+04
16.65         	5.006180e+04
16.7          	5.015491e+04
16.75         	5.028175e+04
16.8          	5.035904e+04
16.85         	5.033940e+04
16.9          	5.030273e+04
16.95         	5.026403e+04
17            	5.023284e+04
17.05         	5.024116e+04
17.1          	5.029490e+04
17.15         	5.037494e+04
17.2          	5.041379e+04
17.25         	5.035305e+04
17.3          	5.023829e+04
17.35         	5.016106e+04
17.4          	5.008578e+04
17.45         	5.004713e+04
17.5          	5.005993e+04
17.55         	5.011092e+04
17.6          	5.019357e+04
17.65         	5.025499e+04
17.7          	5.031132e+04
17.75         	5.033221e+04
17.7917       	5.052244e+04
17.8333       	5.031781e+04
17.875        	5.031648e+04
17.9167       	5.035949e+04
17.9583       	5.044179e+04
18            	5.046716e+04
18.0417       	5.047085e+04
18.0833       	5.042706e+04
18.125        	5.038008e+04
18.1667       	5.034387e+04
18.2083       	5.035674e+04
18.25         	5.040466e+04
18.2917       	5.040971e+04
18.3333       	5.041685e+04
18.375        	5.035992e+04
18.4167       	5.028221e+04
18.4583       	5.024618e+04
18.5          	5.021035e+04
18.5417       	5.020180e+04
18.5833       	5.015065e+04
18.625        	5.007101e+04
18.6667       	5.002311e+04
18.7083       	5.000601e+04
18.75         	5.002796e+04
18.7917       	5.009495e+04
18.8333       	5.010457e+04
18.875        	5.009023e+04
18.9167       	5.000522e+04
18.9583       	4.992569e+04
19            	4.981284e+04
19.0417       	4.974648e+04
19.0833       	4.971467e+04
19.125        	4.973082e+04
19.1667       	4.980193e+04
19.2083       	4.983936e+04
19.25         	4.985340e+04
19.2917       	4.981900e+04
19.3333       	4.979524e+04
19.375        	4.973243e+04
19.4167       	4.968218e+04
19.4583       	4.963614e+04
19.5          	4.955968e+04
19.5417       	4.945760e+04
19.5833       	4.939366e+04
19.625        	4.937584e+04
19.6667       	4.935825e+04
19.7083       	4.938622e+04
19.75         	4.943987e+04
19.7917       	4.950639e+04
19.8333       	4.951591e+04
19.875        	4.949509e+04
19.9167       	4.946117e+04
19.9583       	4.939760e+04
20            	4.935454e+04
20.0417       	4.933818e+04
20.0833       	4.936997e+04
20.125        	4.944751e+04
20.1667       	4.952139e+04
20.2083       	4.953695e+04
20.25         	4.948751e+04
20.2917       	4.946765e+04
20.3333       	4.945681e+04
20.375        	4.946841e+04
20.4167       	4.948357e+04
20.4583       	4.951688e+04
20.5          	4.948200e+04
20.5417       	4.947481e+04
20.5833       	4.941898e+04
20.625        	4.943542e+04
20.6667       	4.941700e+04
20.7083       	4.947432e+04
20.75         	4.954523e+04
20.7917       	4.959311e+04
20.8333       	4.963038e+04
20.875        	4.967642e+04
20.9167       	4.971593e+04
20.9583       	4.972736e+04
21            	4.971453e+04
21.0417       	4.970572e+04
21.0833       	4.967190e+04
21.125        	4.960321e+04
21.1667       	4.953242e+04
21.2083       	4.946138e+04
21.25         	4.945034e+04
21.2917       	4.938979e+04
21.3333       	4.937951e+04
21.375        	4.938073e+04
21.4167       	4.939125e+04
21.4583       	4.939116e+04
21.5          	4.940711e+04
21.5417       	4.943579e+04
21.5833       	4.945030e+04
21.625        	4.943411e+04
21.6667       	4.943392e+04
21.7083       	4.939853e+04
21.75         	4.933072e+04
21.7917       	4.923834e+04
21.8333       	4.921249e+04
21.875        	4.917743e+04
21.9167       	4.916864e+04
21.9583       	4.917269e+04
22            	4.918773e+04
22.0417       	4.920993e+04
22.0833       	4.924287e+04
22.125        	4.925293e+04
22.1667       	4.924673e+04
22.2083       	4.923314e+04
22.25         	4.924041e+04
22.2917       	4.925685e+04
22.3333       	4.929394e+04
22.375        	4.931357e+04
22.4167       	4.931878e+04
22.4583       	4.928208e+04
22.5          	4.924712e+04
22.5417       	4.923004e+04
22.5833       	4.920655e+04
22.625        	4.919013e+04
22.6667       	4.916654e+04
22.7083       	4.920338e+04
22.75         	4.923758e+04
22.7917       	4.931614e+04
22.8333       	4.934354e+04
22.875        	4.935852e+04
22.9167       	4.934225e+04
22.9583       	4.931598e+04
23            	4.927247e+04
23.0417       	4.923774e+04
23.0833       	4.923134e+04
23.125        	4.926717e+04
23.1667       	4.930130e+04
23.2083       	4.934242e+04
23.25         	4.936568e+04
23.2917       	4.937502e+04
23.3333       	4.939513e+04
23.375        	4.939193e+04
23.4167       	4.938080e+04
23.4583       	4.932246e+04
23.5          	4.930334e+04
23.5417       	4.929979e+04
23.5833       	4.930470e+04
23.625        	4.933609e+04
23.6667       	4.937366e+04
23.7083       	4.938250e+04
23.75         	4.941018e+04
23.7917       	4.942303e+04
23.8333       	4.944726e+04
23.875        	4.945405e+04
23.9167       	4.948120e+04
23.9583       	4.949700e+04
24            	4.950453e+04
24.0417       	4.950309e+04
24.0833       	4.950292e+04
24.125        	4.948758e+04
24.1667       	4.947856e+04
24.2083       	4.944747e+04
24.25         	4.940975e+04
24.2917       	4.939813e+04
24.3333       	4.943881e+04
24.375        	4.951716e+04
24.4167       	4.960075e+04
24.4583       	4.966665e+04
24.5          	4.972442e+04
24.5417       	4.976145e+04
24.5833       	4.976638e+04
24.625        	4.972067e+04
24.6667       	4.965923e+04
24.7083       	4.959270e+04
24.75         	4.956603e+04
24.7917       	4.956710e+04
24.8333       	4.958801e+04
24.875        	4.961191e+04
24.9167       	4.969172e+04
24.9583       	4.972982e+04
25            	4.974837e+04
25.0417       	4.976475e+04
25.0833       	4.975430e+04
25.125        	4.976630e+04
25.1667       	4.978160e+04
25.2083       	4.981573e+04
25.25         	4.981596e+04
25.2917       	4.979858e+04
25.3333       	4.977680e+04
25.375        	4.979126e+04
25.4167       	4.980048e+04
25.4583       	4.983965e+04
25.5          	4.983595e+04
25.5417       	4.985625e+04
25.5833       	4.988433e+04
25.625        	4.989509e+04
25.6667       	4.988878e+04
25.7083       	4.987154e+04
25.75         	4.985714e+04
25.7917       	4.988770e+04
25.8333       	4.989679e+04
25.875        	4.991853e+04
25.9167       	4.995074e+04
25.9583       	4.992983e+04
26            	4.992882e+04
26.0417       	4.989189e+04
26.0833       	4.988497e+04
26.125        	4.985912e+04
26.1667       	4.982995e+04
26.2083       	4.982058e+04
26.25         	4.983747e+04
26.2917       	4.986346e+04
26.3333       	4.991088e+04
26.375        	4.991596e+04
26.4167       	4.993407e+04
26.4583       	4.992088e+04
26.5          	4.991131e+04
26.5417       	4.991085e+04
26.5833       	4.989009e+04
26.625        	4.986889e+04
26.6667       	4.987579e+04
26.7083       	4.990594e+04
26.75         	4.991582e+04
26.7917       	4.994823e+04
26.8333       	4.995324e+04
26.875        	4.996530e+04
26.9167       	4.994041e+04
26.9583       	4.994579e+04
27            	4.992304e+04
27.0417       	4.991410e+04
27.0833       	4.987451e+04
27.125        	4.988705e+04
27.1667       	4.989830e+04
27.2083       	4.993994e+04
27.25         	4.994174e+04
27.2917       	4.995936e+04
27.3333       	4.995435e+04
27.375        	4.997710e+04
27.4167       	5.000002e+04
27.4583       	5.000747e+04
27.5          	4.999930e+04
27.5417       	5.002235e+04
27.5833       	5.004038e+04
27.625        	5.005087e+04
27.6667       	5.002175e+04
27.7083       	4.997231e+04
27.75         	4.993123e+04
27.7917       	4.990280e+04
27.8333       	4.991531e+04
27.875        	4.990557e+04
27.9167       	4.991402e+04
27.9583       	4.995781e+04
28            	5.000786e+04
28.0417       	5.002707e+04
28.0833       	5.004666e+04
28.125        	5.002448e+04
28.1667       	5.000583e+04
28.2083       	5.001042e+04
28.25         	5.001717e+04
28.2917       	5.000811e+04
28.3333       	5.000159e+04
28.375        	5.000685e+04
28.4167       	5.002420e+04
28.4583       	5.004749e+04
28.5          	5.004907e+04
28.5417       	5.004721e+04
28.5833       	5.003417e+04
28.625        	5.003061e+04
28.6667       	5.003374e+04
28.7083       	5.003775e+04
28.75         	5.003477e+04
28.7917       	5.006531e+04
28.8333       	5.006596e+04
28.875        	5.010233e+04
28.9167       	5.008448e+04
28.9583       	5.008064e+04
29            	5.004716e+04
29.0417       	5.004431e+04
29.0833       	5.004264e+04
29.125        	5.006177e+04
29.1667       	5.007616e+04
29.2083       	5.010153e+04
29.25         	5.010527e+04
29.2917       	5.013391e+04
29.3333       	5.012456e+04
29.375        	5.010511e+04
29.4167       	5.006388e+04
29.4583       	5.001883e+04
29.5          	4.998570e+04
29.5417       	4.996988e+04
29.5833       	4.995587e+04
29.625        	4.995863e+04
29.6667       	4.997174e+04
29.7083       	4.999995e+04
29.75         	5.002973e+04
29.7917       	5.004587e+04
29.8333       	5.005986e+04
29.875        	5.005408e+04
29.9167       	5.006607e+04
29.9583       	5.005012e+04
30            	5.005182e+04
30.0417       	5.002324e+04
30.0833       	5.002472e+04
30.125        	5.000989e+04
30.1667       	5.003570e+04
30.2083       	5.003974e+04
30.25         	5.005915e+04
30.2917       	5.005497e+04
30.3333       	5.008025e+04
30.375        	5.006857e+04
30.4167       	5.006651e+04
30.4583       	5.008000e+04
30.5          	5.009524e+04
30.5417       	5.010128e+04
30.5833       	5.010764e+04
30.625        	5.011179e+04
30.6667       	5.010382e+04
30.7083       	5.008092e+04
30.75         	5.009284e+04
30.7917       	5.007249e+04
30.8333       	5.007236e+04
30.875        	5.006817e+04
30.9167       	5.008102e+04
30.9583       	5.009077e+04
31            	5.008088e+04
31.0417       	5.009140e+04
31.0833       	5.009694e+04
31.125        	5.008125e+04
31.1667       	5.008925e+04
31.2083       	5.008734e+04
31.25         	5.008668e+04
31.2917       	5.008670e+04
31.3333       	5.010165e+04
31.375        	5.010380e+04
31.4167       	5.009257e+04
31.4583       	5.008522e+04
31.5          	5.005710e+04
31.5417       	5.002823e+04
31.5833       	5.001291e+04
31.625        	5.001277e+04
31.6667       	5.001681e+04
31.7083       	5.002003e+04
31.75         	5.004914e+04
31.7917       	5.006768e+04
31.8333       	5.008071e+04
31.875        	5.007045e+04
31.9167       	5.005243e+04
31.9583       	5.003959e+04
32            	5.002193e+04
32.0417       	5.002826e+04
32.0833       	5.004449e+04
32.125        	5.003824e+04
32.1667       	5.006982e+04
32.2083       	5.007036e+04
32.25         	5.008330e+04
32.2917       	5.006051e+04
32.3333       	5.005631e+04
32.375        	5.002968e+04
32.4167       	5.002922e+04
32.4583       	5.003087e+04
32.5          	5.004934e+04
32.5417       	5.004647e+04
32.5833       	5.006600e+04
32.625        	5.006583e+04
32.6667       	5.007012e+04
32.7083       	5.006818e+04
32.75         	5.005737e+04
32.7917       	5.005727e+04
32.8333       	5.002463e+04
32.875        	5.003772e+04
32.9167       	5.005919e+04
32.9583       	5.008542e+04
33            	5.010146e+04
33.0417       	5.012443e+04
33.0833       	5.011765e+04
33.125        	5.010311e+04
33.1667       	5.007083e+04
33.2083       	5.006940e+04
33.25         	5.004809e+04
33.2917       	5.004946e+04
33.3333       	5.008251e+04
33.375        	5.010115e+04
33.4167       	5.012584e+04
33.4583       	5.014371e+04
33.5          	5.013636e+04
33.5417       	5.013447e+04
33.5833       	5.009317e+04
33.625        	5.006958e+04
33.6667       	5.006075e+04
33.7083       	5.006544e+04
33.75         	5.007636e+04
33.7917       	5.011016e+04
33.8333       	5.013438e+04
33.875        	5.014791e+04
33.9167       	5.014720e+04
33.9583       	5.013936e+04
34            	5.009415e+04
34.0417       	5.007573e+04
34.0833       	5.006160e+04
34.125        	5.006615e+04
34.1667       	5.010399e+04
34.2083       	5.012988e+04
34.25         	5.016440e+04
34.2917       	5.018901e+04
34.3333       	5.019906e+04
34.375        	5.018784e+04
34.4167       	5.016449e+04
34.4583       	5.015097e+04
34.5          	5.014103e+04
34.5417       	5.014351e+04
34.5833       	5.017376e+04
34.625        	5.019768e+04
34.6667       	5.022347e+04
34.7083       	5.024647e+04
34.75         	5.025220e+04
34.7917       	5.024661e+04
34.8333       	5.022863e+04
34.875        	5.022223e+04
34.9167       	5.019507e+04
34.9583       	5.019643e+04
35            	5.020841e+04
35.0417       	5.022968e+04
35.0833       	5.023947e+04
35.125        	5.024441e+04
35.1667       	5.023730e+04
35.2083       	5.023054e+04
35.25         	5.020955e+04
35.2917       	5.020718e+04
35.3333       	5.017145e+04
35.375        	5.017061e+04
35.4167       	5.016820e+04
35.4583       	5.017708e+04
35.5          	5.016025e+04
35.5417       	5.015774e+04
35.5833       	5.014014e+04
35.625        	5.013966e+04
35.6667       	5.012077e+04
35.7083       	5.013071e+04
35.75         	5.011448e+04
35.7917       	5.012584e+04
35.8333       	5.013561e+04
35.875        	5.013273e+04
35.9167       	5.013156e+04
35.9583       	5.012350e+04
36            	5.010269e+04
36.0417       	5.008617e+04
36.0833       	5.008346e+04
36.125        	5.008732e+04
36.1667       	5.007381e+04
36.2083       	5.009083e+04
36.25         	5.011697e+04
36.2917       	5.012578e+04
36.3333       	5.011552e+04
36.375        	5.010582e+04
36.4167       	5.008238e+04
36.4583       	5.004742e+04
36.5          	5.005695e+04
36.5417       	5.005452e+04
36.5833       	5.004388e+04
36.625        	5.005662e+04
36.6667       	5.009084e+04
36.7083       	5.010078e+04
36.75         	5.010780e+04
36.7917       	5.007956e+04
36.8333       	5.004821e+04
36.875        	5.000988e+04
36.9167       	5.000828e+04
36.9583       	5.001127e+04
37            	5.000043e+04
37.0417       	5.000983e+04
37.0833       	5.005975e+04
37.125        	5.006368e+04
37.1667       	5.007859e+04
37.2083       	5.005289e+04