# Region type : patch inlet
# Faces       : 966
# Area        : 4.891447e+01
# Scale factor: 1.000000e+00
# Time        	sum(rhoPhi)
0.0833333     	-5.000000e+04
0.138889      	-5.000000e+04
0.194444      	-5.000000e+04
0.25          	-5.000000e+04
0.291667      	-5.000000e+04
0.34375       	-5.000000e+04
0.375         	-5.000000e+04
0.40625       	-5.000000e+04
0.416667      	-5.000000e+04
0.428571      	-5.000000e+04
0.442857      	-5.000000e+04
0.461905      	-5.000000e+04
0.480952      	-5.000000e+04
0.5           	-5.000000e+04
0.517857      	-5.000000e+04
0.533333      	-5.000000e+04
0.551389      	-5.000000e+04
0.57125       	-5.000000e+04
0.593594      	-5.000000e+04
0.619661      	-5.000000e+04
0.634144      	-5.000000e+04
0.650694      	-5.000000e+04
0.670556      	-5.000000e+04
0.697037      	-5.000000e+04
0.723519      	-5.000000e+04
0.75          	-5.000000e+04
0.761364      	-5.000000e+04
0.774621      	-5.000000e+04
0.789646      	-5.000000e+04
0.807176      	-5.000000e+04
0.811111      	-5.000000e+04
0.815833      	-5.000000e+04
0.821414      	-5.000000e+04
0.828028      	-5.000000e+04
0.835845      	-5.000000e+04
0.844965      	-5.000000e+04
0.856039      	-5.000000e+04
0.869126      	-5.000000e+04
0.885486      	-5.000000e+04
0.904571      	-5.000000e+04
0.928428      	-5.000000e+04
0.952286      	-5.000000e+04
0.976143      	-5.000000e+04
1             	-5.000000e+04
1.02273       	-5.000000e+04
1.05114       	-5.000000e+04
1.05546       	-5.000000e+04
1.06058       	-5.000000e+04
1.06669       	-5.000000e+04
1.07402       	-5.000000e+04
1.08282       	-5.000000e+04
1.09327       	-5.000000e+04
1.10533       	-5.000000e+04
1.11979       	-5.000000e+04
1.13839       	-5.000000e+04
1.16072       	-5.000000e+04
1.19048       	-5.000000e+04
1.19589       	-5.000000e+04
1.20265       	-5.000000e+04
1.21054       	-5.000000e+04
1.22041       	-5.000000e+04
1.23027       	-5.000000e+04
1.24014       	-5.000000e+04
1.25          	-5.000000e+04
1.2619        	-5.000000e+04
1.27591       	-5.000000e+04
1.29315       	-5.000000e+04
1.31383       	-5.000000e+04
1.3371        	-5.000000e+04
1.36425       	-5.000000e+04
1.38122       	-5.000000e+04
1.38292       	-5.000000e+04
1.38494       	-5.000000e+04
1.38739       	-5.000000e+04
1.39035       	-5.000000e+04
1.39389       	-5.000000e+04
1.39813       	-5.000000e+04
1.40322       	-5.000000e+04
1.40927       	-5.000000e+04
1.41683       	-5.000000e+04
1.42607       	-5.000000e+04
1.43663       	-5.000000e+04
1.44931       	-5.000000e+04
1.46621       	-5.000000e+04
1.4831        	-5.000000e+04
1.48733       	-5.000000e+04
1.49155       	-5.000000e+04
1.49578       	-5.000000e+04
1.5           	-5.000000e+04
1.5051        	-5.000000e+04
1.51122       	-5.000000e+04
1.51869       	-5.000000e+04
1.52758       	-5.000000e+04
1.53817       	-5.000000e+04
1.55063       	-5.000000e+04
1.56597       	-5.000000e+04
1.58437       	-5.000000e+04
1.60803       	-5.000000e+04
1.63643       	-5.000000e+04
1.67428       	-5.000000e+04
1.68943       	-5.000000e+04
1.70962       	-5.000000e+04
1.72981       	-5.000000e+04
1.75          	-5.000000e+04
1.775         	-5.000000e+04
1.80312       	-5.000000e+04
1.83594       	-5.000000e+04
1.85234       	-5.000000e+04
1.86219       	-5.000000e+04
1.87367       	-5.000000e+04
1.88771       	-5.000000e+04
1.90375       	-5.000000e+04
1.923         	-5.000000e+04
1.94867       	-5.000000e+04
1.97433       	-5.000000e+04
1.97667       	-5.000000e+04
1.97958       	-5.000000e+04
1.98299       	-5.000000e+04
1.98724       	-5.000000e+04
1.99149       	-5.000000e+04
1.99575       	-5.000000e+04
2             	-5.000000e+04
2.0051        	-5.000000e+04
2.01122       	-5.000000e+04
2.01846       	-5.000000e+04
2.02704       	-5.000000e+04
2.03717       	-5.000000e+04
2.04899       	-5.000000e+04
2.06335       	-5.000000e+04
2.08032       	-5.000000e+04
2.08436       	-5.000000e+04
2.08909       	-5.000000e+04
2.09484       	-5.000000e+04
2.10189       	-5.000000e+04
2.11012       	-5.000000e+04
2.12011       	-5.000000e+04
2.13192       	-5.000000e+04
2.14668       	-5.000000e+04
2.1639        	-5.000000e+04
2.18542       	-5.000000e+04
2.20695       	-5.000000e+04
2.21771       	-5.000000e+04
2.22847       	-5.000000e+04
2.23924       	-5.000000e+04
2.25          	-5.000000e+04
2.26316       	-5.000000e+04
2.27895       	-5.000000e+04
2.29737       	-5.000000e+04
2.31988       	-5.000000e+04
2.34561       	-5.000000e+04
2.37135       	-5.000000e+04
2.40351       	-5.000000e+04
2.40918       	-5.000000e+04
2.41617       	-5.000000e+04
2.42455       	-5.000000e+04
2.43533       	-5.000000e+04
2.44827       	-5.000000e+04
2.46551       	-5.000000e+04
2.48276       	-5.000000e+04
2.5           	-5.000000e+04
2.52083       	-5.000000e+04
2.5463        	-5.000000e+04
2.5754        	-5.000000e+04
2.58883       	-5.000000e+04
2.60495       	-5.000000e+04
2.62308       	-5.000000e+04
2.64423       	-5.000000e+04
2.67067       	-5.000000e+04
2.69712       	-5.000000e+04
2.72356       	-5.000000e+04
2.75          	-5.000000e+04
2.77083       	-5.000000e+04
2.7963        	-5.000000e+04
2.8254        	-5.000000e+04
2.83883       	-5.000000e+04
2.85495       	-5.000000e+04
2.87308       	-5.000000e+04
2.89423       	-5.000000e+04
2.92067       	-5.000000e+04
2.94712       	-5.000000e+04
2.97356       	-5.000000e+04
3             	-5.000000e+04
3.03125       	-5.000000e+04
3.06771       	-5.000000e+04
3.11328       	-5.000000e+04
3.13607       	-5.000000e+04
3.16455       	-5.000000e+04
3.19303       	-5.000000e+04
3.22152       	-5.000000e+04
3.25          	-5.000000e+04
3.27273       	-5.000000e+04
3.29798       	-5.000000e+04
3.32684       	-5.000000e+04
3.35158       	-5.000000e+04
3.38126       	-5.000000e+04
3.42084       	-5.000000e+04
3.46042       	-5.000000e+04
3.5           	-5.000000e+04
3.53125       	-5.000000e+04
3.55859       	-5.000000e+04
3.58594       	-5.000000e+04
3.60938       	-5.000000e+04
3.63281       	-5.000000e+04
3.65234       	-5.000000e+04
3.67188       	-5.000000e+04
3.69141       	-5.000000e+04
3.71094       	-5.000000e+04
3.73047       	-5.000000e+04
3.75          	-5.000000e+04
3.76667       	-5.000000e+04
3.78333       	-5.000000e+04
3.79881       	-5.000000e+04
3.81429       	-5.000000e+04
3.82976       	-5.000000e+04
3.84395       	-5.000000e+04
3.85813       	-5.000000e+04
3.87232       	-5.000000e+04
3.88651       	-5.000000e+04
3.90069       	-5.000000e+04
3.91488       	-5.000000e+04
3.92907       	-5.000000e+04
3.94325       	-5.000000e+04
3.95744       	-5.000000e+04
3.97163       	-5.000000e+04
3.98581       	-5.000000e+04
4             	-5.000000e+04
4.01562       	-5.000000e+04
4.03365       	-5.000000e+04
4.05168       	-5.000000e+04
4.07151       	-5.000000e+04
4.08774       	-5.000000e+04
4.10577       	-5.000000e+04
4.1238        	-5.000000e+04
4.14183       	-5.000000e+04
4.15986       	-5.000000e+04
4.17788       	-5.000000e+04
4.19591       	-5.000000e+04
4.21394       	-5.000000e+04
4.23197       	-5.000000e+04
4.25          	-5.000000e+04
4.26923       	-5.000000e+04
4.28846       	-5.000000e+04
4.30962       	-5.000000e+04
4.33077       	-5.000000e+04
4.35192       	-5.000000e+04
4.37308       	-5.000000e+04
4.39423       	-5.000000e+04
4.41538       	-5.000000e+04
4.43654       	-5.000000e+04
4.45769       	-5.000000e+04
4.47885       	-5.000000e+04
4.5           	-5.000000e+04
4.52083       	-5.000000e+04
4.54167       	-5.000000e+04
4.5625        	-5.000000e+04
4.58333       	-5.000000e+04
4.60417       	-5.000000e+04
4.625         	-5.000000e+04
4.64583       	-5.000000e+04
4.66319       	-5.000000e+04
4.6849        	-5.000000e+04
4.7066        	-5.000000e+04
4.7283        	-5.000000e+04
4.75          	-5.000000e+04
4.76786       	-5.000000e+04
4.78571       	-5.000000e+04
4.80357       	-5.000000e+04
4.82143       	-5.000000e+04
4.84127       	-5.000000e+04
4.86111       	-5.000000e+04
4.87847       	-5.000000e+04
4.89583       	-5.000000e+04
4.91319       	-5.000000e+04
4.93056       	-5.000000e+04
4.94792       	-5.000000e+04
4.96528       	-5.000000e+04
4.98264       	-5.000000e+04
5             	-5.000000e+04
5.01923       	-5.000000e+04
5.03846       	-5.000000e+04
5.05769       	-5.000000e+04
5.07692       	-5.000000e+04
5.09615       	-5.000000e+04
5.11538       	-5.000000e+04
5.13462       	-5.000000e+04
5.15385       	-5.000000e+04
5.17308       	-5.000000e+04
5.19231       	-5.000000e+04
5.21154       	-5.000000e+04
5.23077       	-5.000000e+04
5.25          	-5.000000e+04
5.26786       	-5.000000e+04
5.28571       	-5.000000e+04
5.30519       	-5.000000e+04
5.32684       	-5.000000e+04
5.35158       	-5.000000e+04
5.37278       	-5.000000e+04
5.39822       	-5.000000e+04
5.41858       	-5.000000e+04
5.43893       	-5.000000e+04
5.45929       	-5.000000e+04
5.47964       	-5.000000e+04
5.5           	-5.000000e+04
5.52273       	-5.000000e+04
5.54798       	-5.000000e+04
5.57043       	-5.000000e+04
5.59608       	-5.000000e+04
5.62173       	-5.000000e+04
5.64739       	-5.000000e+04
5.67304       	-5.000000e+04
5.69869       	-5.000000e+04
5.72435       	-5.000000e+04
5.73717       	-5.000000e+04
5.75          	-5.000000e+04
5.76562       	-5.000000e+04
5.78365       	-5.000000e+04
5.80529       	-5.000000e+04
5.82963       	-5.000000e+04
5.85397       	-5.000000e+04
5.88317       	-5.000000e+04
5.91238       	-5.000000e+04
5.94159       	-5.000000e+04
5.97079       	-5.000000e+04
6             	-5.000000e+04
6.03125       	-5.000000e+04
6.05859       	-5.000000e+04
6.08594       	-5.000000e+04
6.11328       	-5.000000e+04
6.14062       	-5.000000e+04
6.16797       	-5.000000e+04
6.19531       	-5.000000e+04
6.22266       	-5.000000e+04
6.25          	-5.000000e+04
6.28125       	-5.000000e+04
6.3125        	-5.000000e+04
6.34375       	-5.000000e+04
6.375         	-5.000000e+04
6.40625       	-5.000000e+04
6.4375        	-5.000000e+04
6.46875       	-5.000000e+04
6.5           	-5.000000e+04
6.53125       	-5.000000e+04
6.5625        	-5.000000e+04
6.59375       	-5.000000e+04
6.625         	-5.000000e+04
6.65          	-5.000000e+04
6.675         	-5.000000e+04
6.7           	-5.000000e+04
6.725         	-5.000000e+04
6.75          	-5.000000e+04
6.775         	-5.000000e+04
6.8           	-5.000000e+04
6.82857       	-5.000000e+04
6.85306       	-5.000000e+04
6.88245       	-5.000000e+04
6.91184       	-5.000000e+04
6.94122       	-5.000000e+04
6.96082       	-5.000000e+04
6.98041       	-5.000000e+04
7             	-5.000000e+04
7.02273       	-5.000000e+04
7.04167       	-5.000000e+04
7.0625        	-5.000000e+04
7.08125       	-5.000000e+04
7.1           	-5.000000e+04
7.12143       	-5.000000e+04
7.14714       	-5.000000e+04
7.16771       	-5.000000e+04
7.18829       	-5.000000e+04
7.20886       	-5.000000e+04
7.22943       	-5.000000e+04
7.25          	-5.000000e+04
7.26786       	-5.000000e+04
7.28896       	-5.000000e+04
7.31241       	-5.000000e+04
7.33117       	-5.000000e+04
7.35227       	-5.000000e+04
7.37689       	-5.000000e+04
7.39057       	-5.000000e+04
7.4062        	-5.000000e+04
7.42496       	-5.000000e+04
7.44998       	-5.000000e+04
7.46248       	-5.000000e+04
7.47499       	-5.000000e+04
7.48749       	-5.000000e+04
7.5           	-5.000000e+04
7.51471       	-5.000000e+04
7.53151       	-5.000000e+04
7.54517       	-5.000000e+04
7.55797       	-5.000000e+04
7.57274       	-5.000000e+04
7.59047       	-5.000000e+04
7.61041       	-5.000000e+04
7.63367       	-5.000000e+04
7.65694       	-5.000000e+04
7.68796       	-5.000000e+04
7.71898       	-5.000000e+04
7.75          	-5.000000e+04
7.78571       	-5.000000e+04
7.81633       	-5.000000e+04
7.84694       	-5.000000e+04
7.8852        	-5.000000e+04
7.92347       	-5.000000e+04
7.96173       	-5.000000e+04
8             	-5.000000e+04
8.03571       	-5.000000e+04
8.07857       	-5.000000e+04
8.12143       	-5.000000e+04
8.16429       	-5.000000e+04
8.20714       	-5.000000e+04
8.25          	-5.000000e+04
8.29167       	-5.000000e+04
8.33333       	-5.000000e+04
8.375         	-5.000000e+04
8.41667       	-5.000000e+04
8.45833       	-5.000000e+04
8.5           	-5.000000e+04
8.55          	-5.000000e+04
8.6           	-5.000000e+04
8.65          	-5.000000e+04
8.7           	-5.000000e+04
8.75          	-5.000000e+04
8.8           	-5.000000e+04
8.85          	-5.000000e+04
8.9           	-5.000000e+04
8.95          	-5.000000e+04
9             	-5.000000e+04
9.05          	-5.000000e+04
9.1           	-5.000000e+04
9.15          	-5.000000e+04
9.2           	-5.000000e+04
9.25          	-5.000000e+04
9.3125        	-5.000000e+04
9.375         	-5.000000e+04
9.4375        	-5.000000e+04
9.5           	-5.000000e+04
9.5625        	-5.000000e+04
9.625         	-5.000000e+04
9.6875        	-5.000000e+04
9.75          	-5.000000e+04
9.8125        	-5.000000e+04
9.85938       	-5.000000e+04
9.90625       	-5.000000e+04
9.95312       	-5.000000e+04
10            	-5.000000e+04
10.0417       	-5.000000e+04
10.0833       	-5.000000e+04
10.1389       	-5.000000e+04
10.1944       	-5.000000e+04
10.25         	-5.000000e+04
10.2917       	-5.000000e+04
10.3438       	-5.000000e+04
10.375        	-5.000000e+04
10.4062       	-5.000000e+04
10.4375       	-5.000000e+04
10.4688       	-5.000000e+04
10.5          	-5.000000e+04
10.5357       	-5.000000e+04
10.5786       	-5.000000e+04
10.6214       	-5.000000e+04
10.6643       	-5.000000e+04
10.7071       	-5.000000e+04
10.75         	-5.000000e+04
10.8          	-5.000000e+04
10.85         	-5.000000e+04
10.8875       	-5.000000e+04
10.925        	-5.000000e+04
10.9625       	-5.000000e+04
11            	-5.000000e+04
11.0417       	-5.000000e+04
11.0938       	-5.000000e+04
11.125        	-5.000000e+04
11.1667       	-5.000000e+04
11.2083       	-5.000000e+04
11.25         	-5.000000e+04
11.3          	-5.000000e+04
11.35         	-5.000000e+04
11.3875       	-5.000000e+04
11.425        	-5.000000e+04
11.4625       	-5.000000e+04
11.5          	-5.000000e+04
11.5417       	-5.000000e+04
11.5938       	-5.000000e+04
11.6458       	-5.000000e+04
11.6979       	-5.000000e+04
11.75         	-5.000000e+04
11.8125       	-5.000000e+04
11.875        	-5.000000e+04
11.9375       	-5.000000e+04
12            	-5.000000e+04
12.0625       	-5.000000e+04
12.125        	-5.000000e+04
12.1875       	-5.000000e+04
12.25         	-5.000000e+04
12.3125       	-5.000000e+04
12.375        	-5.000000e+04
12.4375       	-5.000000e+04
12.5          	-5.000000e+04
12.5625       	-5.000000e+04
12.625        	-5.000000e+04
12.6875       	-5.000000e+04
12.75         	-5.000000e+04
12.8125       	-5.000000e+04
12.875        	-5.000000e+04
12.9375       	-5.000000e+04
13            	-5.000000e+04
13.0625       	-5.000000e+04
13.125        	-5.000000e+04
13.1875       	-5.000000e+04
13.25         	-5.000000e+04
13.3125       	-5.000000e+04
13.375        	-5.000000e+04
13.4375       	-5.000000e+04
13.5          	-5.000000e+04
13.55         	-5.000000e+04
13.6          	-5.000000e+04
13.65         	-5.000000e+04
13.7          	-5.000000e+04
13.75         	-5.000000e+04
13.8          	-5.000000e+04
13.85         	-5.000000e+04
13.9          	-5.000000e+04
13.95         	-5.000000e+04
14            	-5.000000e+04
14.05         	-5.000000e+04
14.1          	-5.000000e+04
14.15         	-5.000000e+04
14.2          	-5.000000e+04
14.25         	-5.000000e+04
14.3          	-5.000000e+04
14.35         	-5.000000e+04
14.4          	-5.000000e+04
14.45         	-5.000000e+04
14.5          	-5.000000e+04
14.55         	-5.000000e+04
14.6          	-5.000000e+04
14.65         	-5.000000e+04
14.7          	-5.000000e+04
14.75         	-5.000000e+04
14.8          	-5.000000e+04
14.85         	-5.000000e+04
14.9          	-5.000000e+04
14.95         	-5.000000e+04
15            	-5.000000e+04
15.05         	-5.000000e+04
15.1          	-5.000000e+04
15.15         	-5.000000e+04
15.2          	-5.000000e+04
15.25         	-5.000000e+04
15.3          	-5.000000e+04
15.35         	-5.000000e+04
15.4          	-5.000000e+04
15.45         	-5.000000e+04
15.5          	-5.000000e+04
15.55         	-5.000000e+04
15.6          	-5.000000e+04
15.65         	-5.000000e+04
15.7          	-5.000000e+04
15.75         	-5.000000e+04
15.8          	-5.000000e+04
15.85         	-5.000000e+04
15.9          	-5.000000e+04
15.95         	-5.000000e+04
16            	-5.000000e+04
16.05         	-5.000000e+04
16.1          	-5.000000e+04
16.15         	-5.000000e+04
16.2          	-5.000000e+04
16.25         	-5.000000e+04
16.3          	-5.000000e+04
16.35         	-5.000000e+04
16.4          	-5.000000e+04
16.45         	-5.000000e+04
16.5          	-5.000000e+04
16.55         	-5.000000e+04
16.6          	-5.000000e+04
16.65         	-5.000000e+04
16.7          	-5.000000e+04
16.75         	-5.000000e+04
16.8          	-5.000000e+04
16.85         	-5.000000e+04
16.9          	-5.000000e+04
16.95         	-5.000000e+04
17            	-5.000000e+04
17.05         	-5.000000e+04
17.1          	-5.000000e+04
17.15         	-5.000000e+04
17.2          	-5.000000e+04
17.25         	-5.000000e+04
17.3          	-5.000000e+04
17.35         	-5.000000e+04
17.4          	-5.000000e+04
17.45         	-5.000000e+04
17.5          	-5.000000e+04
17.55         	-5.000000e+04
17.6          	-5.000000e+04
17.65         	-5.000000e+04
17.7          	-5.000000e+04
17.75         	-5.000000e+04
17.7917       	-5.000000e+04
17.8333       	-5.000000e+04
17.875        	-5.000000e+04
17.9167       	-5.000000e+04
17.9583       	-5.000000e+04
18            	-5.000000e+04
18.0417       	-5.000000e+04
18.0833       	-5.000000e+04
18.125        	-5.000000e+04
18.1667       	-5.000000e+04
18.2083       	-5.000000e+04
18.25         	-5.000000e+04
18.2917       	-5.000000e+04
18.3333       	-5.000000e+04
18.375        	-5.000000e+04
18.4167       	-5.000000e+04
18.4583       	-5.000000e+04
18.5          	-5.000000e+04
18.5417       	-5.000000e+04
18.5833       	-5.000000e+04
18.625        	-5.000000e+04
18.6667       	-5.000000e+04
18.7083       	-5.000000e+04
18.75         	-5.000000e+04
18.7917       	-5.000000e+04
18.8333       	-5.000000e+04
18.875        	-5.000000e+04
18.9167       	-5.000000e+04
18.9583       	-5.000000e+04
19            	-5.000000e+04
19.0417       	-5.000000e+04
19.0833       	-5.000000e+04
19.125        	-5.000000e+04
19.1667       	-5.000000e+04
19.2083       	-5.000000e+04
19.25         	-5.000000e+04
19.2917       	-5.000000e+04
19.3333       	-5.000000e+04
19.375        	-5.000000e+04
19.4167       	-5.000000e+04
19.4583       	-5.000000e+04
19.5          	-5.000000e+04
19.5417       	-5.000000e+04
19.5833       	-5.000000e+04
19.625        	-5.000000e+04
19.6667       	-5.000000e+04
19.7083       	-5.000000e+04
19.75         	-5.000000e+04
19.7917       	-5.000000e+04
19.8333       	-5.000000e+04
19.875        	-5.000000e+04
19.9167       	-5.000000e+04
19.9583       	-5.000000e+04
20            	-5.000000e+04
20.0417       	-5.000000e+04
20.0833       	-5.000000e+04
20.125        	-5.000000e+04
20.1667       	-5.000000e+04
20.2083       	-5.000000e+04
20.25         	-5.000000e+04
20.2917       	-5.000000e+04
20.3333       	-5.000000e+04
20.375        	-5.000000e+04
20.4167       	-5.000000e+04
20.4583       	-5.000000e+04
20.5          	-5.000000e+04
20.5417       	-5.000000e+04
20.5833       	-5.000000e+04
20.625        	-5.000000e+04
20.6667       	-5.000000e+04
20.7083       	-5.000000e+04
20.75         	-5.000000e+04
20.7917       	-5.000000e+04
20.8333       	-5.000000e+04
20.875        	-5.000000e+04
20.9167       	-5.000000e+04
20.9583       	-5.000000e+04
21            	-5.000000e+04
21.0417       	-5.000000e+04
21.0833       	-5.000000e+04
21.125        	-5.000000e+04
21.1667       	-5.000000e+04
21.2083       	-5.000000e+04
21.25         	-5.000000e+04
21.2917       	-5.000000e+04
21.3333       	-5.000000e+04
21.375        	-5.000000e+04
21.4167       	-5.000000e+04
21.4583       	-5.000000e+04
21.5          	-5.000000e+04
21.5417       	-5.000000e+04
21.5833       	-5.000000e+04
21.625        	-5.000000e+04
21.6667       	-5.000000e+04
21.7083       	-5.000000e+04
21.75         	-5.000000e+04
21.7917       	-5.000000e+04
21.8333       	-5.000000e+04
21.875        	-5.000000e+04
21.9167       	-5.000000e+04
21.9583       	-5.000000e+04
22            	-5.000000e+04
22.0417       	-5.000000e+04
22.0833       	-5.000000e+04
22.125        	-5.000000e+04
22.1667       	-5.000000e+04
22.2083       	-5.000000e+04
22.25         	-5.000000e+04
22.2917       	-5.000000e+04
22.3333       	-5.000000e+04
22.375        	-5.000000e+04
22.4167       	-5.000000e+04
22.4583       	-5.000000e+04
22.5          	-5.000000e+04
22.5417       	-5.000000e+04
22.5833       	-5.000000e+04
22.625        	-5.000000e+04
22.6667       	-5.000000e+04
22.7083       	-5.000000e+04
22.75         	-5.000000e+04
22.7917       	-5.000000e+04
22.8333       	-5.000000e+04
22.875        	-5.000000e+04
22.9167       	-5.000000e+04
22.9583       	-5.000000e+04
23            	-5.000000e+04
23.0417       	-5.000000e+04
23.0833       	-5.000000e+04
23.125        	-5.000000e+04
23.1667       	-5.000000e+04
23.2083       	-5.000000e+04
23.25         	-5.000000e+04
23.2917       	-5.000000e+04
23.3333       	-5.000000e+04
23.375        	-5.000000e+04
23.4167       	-5.000000e+04
23.4583       	-5.000000e+04
23.5          	-5.000000e+04
23.5417       	-5.000000e+04
23.5833       	-5.000000e+04
23.625        	-5.000000e+04
23.6667       	-5.000000e+04
23.7083       	-5.000000e+04
23.75         	-5.000000e+04
23.7917       	-5.000000e+04
23.8333       	-5.000000e+04
23.875        	-5.000000e+04
23.9167       	-5.000000e+04
23.9583       	-5.000000e+04
24            	-5.000000e+04
24.0417       	-5.000000e+04
24.0833       	-5.000000e+04
24.125        	-5.000000e+04
24.1667       	-5.000000e+04
24.2083       	-5.000000e+04
24.25         	-5.000000e+04
24.2917       	-5.000000e+04
24.3333       	-5.000000e+04
24.375        	-5.000000e+04
24.4167       	-5.000000e+04
24.4583       	-5.000000e+04
24.5          	-5.000000e+04
24.5417       	-5.000000e+04
24.5833       	-5.000000e+04
24.625        	-5.000000e+04
24.6667       	-5.000000e+04
24.7083       	-5.000000e+04
24.75         	-5.000000e+04
24.7917       	-5.000000e+04
24.8333       	-5.000000e+04
24.875        	-5.000000e+04
24.9167       	-5.000000e+04
24.9583       	-5.000000e+04
25            	-5.000000e+04
25.0417       	-5.000000e+04
25.0833       	-5.000000e+04
25.125        	-5.000000e+04
25.1667       	-5.000000e+04
25.2083       	-5.000000e+04
25.25         	-5.000000e+04
25.2917       	-5.000000e+04
25.3333       	-5.000000e+04
25.375        	-5.000000e+04
25.4167       	-5.000000e+04
25.4583       	-5.000000e+04
25.5          	-5.000000e+04
25.5417       	-5.000000e+04
25.5833       	-5.000000e+04
25.625        	-5.000000e+04
25.6667       	-5.000000e+04
25.7083       	-5.000000e+04
25.75         	-5.000000e+04
25.7917       	-5.000000e+04
25.8333       	-5.000000e+04
25.875        	-5.000000e+04
25.9167       	-5.000000e+04
25.9583       	-5.000000e+04
26            	-5.000000e+04
26.0417       	-5.000000e+04
26.0833       	-5.000000e+04
26.125        	-5.000000e+04
26.1667       	-5.000000e+04
26.2083       	-5.000000e+04
26.25         	-5.000000e+04
26.2917       	-5.000000e+04
26.3333       	-5.000000e+04
26.375        	-5.000000e+04
26.4167       	-5.000000e+04
26.4583       	-5.000000e+04
26.5          	-5.000000e+04
26.5417       	-5.000000e+04
26.5833       	-5.000000e+04
26.625        	-5.000000e+04
26.6667       	-5.000000e+04
26.7083       	-5.000000e+04
26.75         	-5.000000e+04
26.7917       	-5.000000e+04
26.8333       	-5.000000e+04
26.875        	-5.000000e+04
26.9167       	-5.000000e+04
26.9583       	-5.000000e+04
27            	-5.000000e+04
27.0417       	-5.000000e+04
27.0833       	-5.000000e+04
27.125        	-5.000000e+04
27.1667       	-5.000000e+04
27.2083       	-5.000000e+04
27.25         	-5.000000e+04
27.2917       	-5.000000e+04
27.3333       	-5.000000e+04
27.375        	-5.000000e+04
27.4167       	-5.000000e+04
27.4583       	-5.000000e+04
27.5          	-5.000000e+04
27.5417       	-5.000000e+04
27.5833       	-5.000000e+04
27.625        	-5.000000e+04
27.6667       	-5.000000e+04
27.7083       	-5.000000e+04
27.75         	-5.000000e+04
27.7917       	-5.000000e+04
27.8333       	-5.000000e+04
27.875        	-5.000000e+04
27.9167       	-5.000000e+04
27.9583       	-5.000000e+04
28            	-5.000000e+04
28.0417       	-5.000000e+04
28.0833       	-5.000000e+04
28.125        	-5.000000e+04
28.1667       	-5.000000e+04
28.2083       	-5.000000e+04
28.25         	-5.000000e+04
28.2917       	-5.000000e+04
28.3333       	-5.000000e+04
28.375        	-5.000000e+04
28.4167       	-5.000000e+04
28.4583       	-5.000000e+04
28.5          	-5.000000e+04
28.5417       	-5.000000e+04
28.5833       	-5.000000e+04
28.625        	-5.000000e+04
28.6667       	-5.000000e+04
28.7083       	-5.000000e+04
28.75         	-5.000000e+04
28.7917       	-5.000000e+04
28.8333       	-5.000000e+04
28.875        	-5.000000e+04
28.9167       	-5.000000e+04
28.9583       	-5.000000e+04
29            	-5.000000e+04
29.0417       	-5.000000e+04
29.0833       	-5.000000e+04
29.125        	-5.000000e+04
29.1667       	-5.000000e+04
29.2083       	-5.000000e+04
29.25         	-5.000000e+04
29.2917       	-5.000000e+04
29.3333       	-5.000000e+04
29.375        	-5.000000e+04
29.4167       	-5.000000e+04
29.4583       	-5.000000e+04
29.5          	-5.000000e+04
29.5417       	-5.000000e+04
29.5833       	-5.000000e+04
29.625        	-5.000000e+04
29.6667       	-5.000000e+04
29.7083       	-5.000000e+04
29.75         	-5.000000e+04
29.7917       	-5.000000e+04
29.8333       	-5.000000e+04
29.875        	-5.000000e+04
29.9167       	-5.000000e+04
29.9583       	-5.000000e+04
30            	-5.000000e+04
30.0417       	-5.000000e+04
30.0833       	-5.000000e+04
30.125        	-5.000000e+04
30.1667       	-5.000000e+04
30.2083       	-5.000000e+04
30.25         	-5.000000e+04
30.2917       	-5.000000e+04
30.3333       	-5.000000e+04
30.375        	-5.000000e+04
30.4167       	-5.000000e+04
30.4583       	-5.000000e+04
30.5          	-5.000000e+04
30.5417       	-5.000000e+04
30.5833       	-5.000000e+04
30.625        	-5.000000e+04
30.6667       	-5.000000e+04
30.7083       	-5.000000e+04
30.75         	-5.000000e+04
30.7917       	-5.000000e+04
30.8333       	-5.000000e+04
30.875        	-5.000000e+04
30.9167       	-5.000000e+04
30.9583       	-5.000000e+04
31            	-5.000000e+04
31.0417       	-5.000000e+04
31.0833       	-5.000000e+04
31.125        	-5.000000e+04
31.1667       	-5.000000e+04
31.2083       	-5.000000e+04
31.25         	-5.000000e+04
31.2917       	-5.000000e+04
31.3333       	-5.000000e+04
31.375        	-5.000000e+04
31.4167       	-5.000000e+04
31.4583       	-5.000000e+04
31.5          	-5.000000e+04
31.5417       	-5.000000e+04
31.5833       	-5.000000e+04
31.625        	-5.000000e+04
31.6667       	-5.000000e+04
31.7083       	-5.000000e+04
31.75         	-5.000000e+04
31.7917       	-5.000000e+04
31.8333       	-5.000000e+04
31.875        	-5.000000e+04
31.9167       	-5.000000e+04
31.9583       	-5.000000e+04
32            	-5.000000e+04
32.0417       	-5.000000e+04
32.0833       	-5.000000e+04
32.125        	-5.000000e+04
32.1667       	-5.000000e+04
32.2083       	-5.000000e+04
32.25         	-5.000000e+04
32.2917       	-5.000000e+04
32.3333       	-5.000000e+04
32.375        	-5.000000e+04
32.4167       	-5.000000e+04
32.4583       	-5.000000e+04
32.5          	-5.000000e+04
32.5417       	-5.000000e+04
32.5833       	-5.000000e+04
32.625        	-5.000000e+04
32.6667       	-5.000000e+04
32.7083       	-5.000000e+04
32.75         	-5.000000e+04
32.7917       	-5.000000e+04
32.8333       	-5.000000e+04
32.875        	-5.000000e+04
32.9167       	-5.000000e+04
32.9583       	-5.000000e+04
33            	-5.000000e+04
33.0417       	-5.000000e+04
33.0833       	-5.000000e+04
33.125        	-5.000000e+04
33.1667       	-5.000000e+04
33.2083       	-5.000000e+04
33.25         	-5.000000e+04
33.2917       	-5.000000e+04
33.3333       	-5.000000e+04
33.375        	-5.000000e+04
33.4167       	-5.000000e+04
33.4583       	-5.000000e+04
33.5          	-5.000000e+04
33.5417       	-5.000000e+04
33.5833       	-5.000000e+04
33.625        	-5.000000e+04
33.6667       	-5.000000e+04
33.7083       	-5.000000e+04
33.75         	-5.000000e+04
33.7917       	-5.000000e+04
33.8333       	-5.000000e+04
33.875        	-5.000000e+04
33.9167       	-5.000000e+04
33.9583       	-5.000000e+04
34            	-5.000000e+04
34.0417       	-5.000000e+04
34.0833       	-5.000000e+04
34.125        	-5.000000e+04
34.1667       	-5.000000e+04
34.2083       	-5.000000e+04
34.25         	-5.000000e+04
34.2917       	-5.000000e+04
34.3333       	-5.000000e+04
34.375        	-5.000000e+04
34.4167       	-5.000000e+04
34.4583       	-5.000000e+04
34.5          	-5.000000e+04
34.5417       	-5.000000e+04
34.5833       	-5.000000e+04
34.625        	-5.000000e+04
34.6667       	-5.000000e+04
34.7083       	-5.000000e+04
34.75         	-5.000000e+04
34.7917       	-5.000000e+04
34.8333       	-5.000000e+04
34.875        	-5.000000e+04
34.9167       	-5.000000e+04
34.9583       	-5.000000e+04
35            	-5.000000e+04
35.0417       	-5.000000e+04
35.0833       	-5.000000e+04
35.125        	-5.000000e+04
35.1667       	-5.000000e+04
35.2083       	-5.000000e+04
35.25         	-5.000000e+04
35.2917       	-5.000000e+04
35.3333       	-5.000000e+04
35.375        	-5.000000e+04
35.4167       	-5.000000e+04
35.4583       	-5.000000e+04
35.5          	-5.000000e+04
35.5417       	-5.000000e+04
35.5833       	-5.000000e+04
35.625        	-5.000000e+04
35.6667       	-5.000000e+04